#     Step Nr.          Time[fs]        Kin.[a.u.]          Temp[K]            Pot.[a.u.]        Cons Qty[a.u.]        UsedTime[s]
         0            0.000000        91.965106106       298.000000000      -442.229600670      -350.264494564         0.000000000
         1            0.500000        87.504418991       283.545770383      -437.404473885      -349.990390980         0.564573678
         2            1.000000        77.906219374       252.444153619      -426.994857012      -349.450752525         0.131840490
         3            1.500000        71.042620976       230.203627737      -419.006239171      -349.183115285         0.123289577
         4            2.000000        70.481193581       228.384401177      -417.467716487      -349.400823834         0.120220087
         5            2.500000        72.902313839       236.229701068      -419.251863592      -349.783309961         0.120453096
         6            3.000000        73.112173072       236.909720414      -418.686982970      -349.861823973         0.125244601
         7            3.500000        70.208762338       227.501626024      -414.491887577      -349.563401266         0.128677531
         8            4.000000        67.898092482       220.014225139      -410.912984753      -349.280214227         0.135258432
         9            4.500000        70.073276855       227.062604360      -412.019058355      -349.394921111         0.130153262
        10            5.000000        74.733442991       242.163217705      -416.055521055      -349.811208793         0.126134735
        11            5.500000        76.090613596       246.560938292      -416.807538382      -350.041945256         0.130355541
        12            6.000000        71.301170528       231.041421219      -410.806607381      -349.773051272         0.127450298
        13            6.500000        64.172315889       207.941369773      -401.946640952      -349.248924337         0.166290950
        14            7.000000        61.793054056       200.231706223      -397.911551314      -349.027686117         0.137049450
        15            7.500000        66.961009485       216.977739401      -401.985613722      -349.370388109         0.132275859
        16            8.000000        74.557306011       241.592470579      -409.062296957      -349.933209656         0.202834990
        17            8.500000        76.711438950       248.572635590      -410.649646949      -350.130763525         0.126731624
        18            9.000000        71.065029110       230.276238146      -403.637398204      -349.778087806         0.131098882
        19            9.500000        62.303934539       201.887142623      -393.066811449      -349.275533654         0.130131029
        20           10.000000        57.278303874       185.602292839      -386.273035571      -349.145582866         0.128473698
        21           10.500000        57.738864145       187.094673661      -385.225449835      -349.453285540         0.132500411
        22           11.000000        59.322047063       192.224755380      -385.425548440      -349.751772663         0.135588387
        23           11.500000        58.065108613       188.151823006      -382.345920199      -349.622790100         0.129710369
        24           12.000000        55.541293666       179.973755409      -377.661375877      -349.188866822         0.135322836
        25           12.500000        57.395807850       185.983047956      -377.587218807      -348.989115095         0.130328369
        26           13.000000        66.039044814       213.990242473      -384.978351215      -349.344655142         0.127428836
        27           13.500000        76.060814245       246.464377683      -394.436370870      -349.937393179         0.129147886
        28           14.000000        79.240398836       256.767374638      -397.004962793      -350.128366998         0.126791379
        29           14.500000        73.024499171       236.625625462      -389.736369985      -349.679459101         0.126006528
        30           15.000000        64.296434519       208.343558748      -379.197530367      -349.038059404         0.136926473
        31           15.500000        61.617490659       199.662817712      -374.827848385      -348.857393941         0.131864056
        32           16.000000        67.147676344       217.582607119      -379.387483604      -349.294199495         0.130267843
        33           16.500000        74.806449642       242.399785497      -386.428629724      -349.840981601         0.127276293
        34           17.000000        76.763053244       248.739884456      -387.696854853      -349.900586566         0.209330817
        35           17.500000        72.383362476       234.548112119      -382.122755905      -349.456905277         0.141635770
        36           18.000000        67.824163088       219.774667329      -376.081426048      -349.056803647         0.127843505
        37           18.500000        68.142717926       220.806899507      -375.413421321      -349.159688658         0.126351512
        38           19.000000        71.932715071       233.087852543      -378.630862866      -349.600487748         0.128708370
        39           19.500000        73.355438591       237.697988137      -379.231875592      -349.788868426         0.126639306
        40           20.000000        69.922122663       226.572810448      -374.387007102      -349.421213496         0.128818272
        41           20.500000        66.668921115       216.031268092      -369.433722132      -348.871504607         0.127988113
        42           21.000000        70.796297389       229.405450777      -372.410473055      -348.791806609         0.130373747
        43           21.500000        83.031217707       269.050990363      -384.421464693      -349.363890815         0.132763608
        44           22.000000        94.913751162       307.554669852      -396.844361649      -350.048198234         0.136767467
        45           22.500000        97.174730554       314.881055776      -399.422009088      -350.154634729         0.218780722
        46           23.000000        88.809313404       287.774097318      -390.572855140      -349.595728364         0.207188903
        47           23.500000        77.887027733       252.381965805      -378.600596675      -348.967590023         0.130228878
        48           24.000000        73.113887225       236.915274885      -372.828788636      -348.886682958         0.158631803
        49           24.500000        75.209160403       243.704713115      -374.571120426      -349.333843936         0.139681357
        50           25.000000        78.254816032       253.573732092      -377.293536196      -349.714008032         0.126206343
        51           25.500000        77.141842380       249.967297408      -375.327818660      -349.564524509         0.211753291
        52           26.000000        73.938294686       239.586651388      -370.742540994      -349.090513186         0.127835399
        53           26.500000        74.618766927       241.791626040      -370.370692339      -348.908467334         0.127377457
        54           27.000000        81.362980477       263.645302101      -376.791436137      -349.305088896         0.129742882
        55           27.500000        88.448314549       286.604331269      -384.076165390      -349.864894439         0.157786235
        56           28.000000        88.224423559       285.878843985      -383.930130287      -349.926849995         0.128609710
        57           28.500000        80.674319638       261.413793450      -375.499674755      -349.359149824         0.128126209
        58           29.000000        73.734517835       238.926341144      -367.184282337      -348.739475215         0.134111623
        59           29.500000        75.685249208       245.247411971      -368.135397385      -348.737647831         0.129407707
        60           30.000000        86.075645265       278.916029948      -378.394320454      -349.376849420         0.125670762
        61           30.500000        95.526036446       309.538694254      -388.413485478      -349.992114079         0.126642212
        62           31.000000        95.845635344       310.574309560      -388.990521003      -349.964904074         0.124416276
        63           31.500000        87.794424698       284.485493116      -380.497402306      -349.392030484         0.125782868
        64           32.000000        79.583766310       257.880008675      -371.380108203      -348.933944495         0.124085820
        65           32.500000        77.268797084       250.378676282      -368.417852310      -349.051817527         0.127373270
        66           33.000000        79.049316259       256.148198404      -369.972073499      -349.505832470         0.126567919
        67           33.500000        78.906412332       255.685138314      -369.411675110      -349.667471733         0.127620035
        68           34.000000        74.882209298       242.645274014      -364.342152480      -349.283832936         0.202322263
        69           34.500000        72.334599399       234.390102220      -360.345015862      -348.794916544         0.127873453
        70           35.000000        77.591166991       251.423270656      -364.527007451      -348.829936536         0.128291808
        71           35.500000        89.239132855       289.166866834      -376.261842387      -349.459357305         0.129117067
        72           36.000000        98.294120428       318.508281323      -386.087992840      -350.058041985         0.127541844
        73           36.500000        97.063525374       314.520711020      -385.118841595      -349.985897772         0.127097408
        74           37.000000        87.238047436       282.682630800      -374.496998802      -349.305176299         0.129450389
        75           37.500000        78.043447641       252.888822529      -364.338550931      -348.718205119         0.128969783
        76           38.000000        77.676701174       251.700432153      -363.371699250      -348.807705129         0.127125382
        77           38.500000        84.515694766       273.861229621      -370.347918719      -349.417831757         0.125653528
        78           39.000000        90.017597359       291.689371640      -376.232112730      -349.850938036         0.124308919
        79           39.500000        88.782699994       287.687860302      -374.551186561      -349.663062917         0.126719561
        80           40.000000        82.972595552       268.861033511      -367.969723074      -349.140277516         0.127432584
        81           40.500000        79.929603003       259.000643867      -364.108018252      -348.932100376         0.128234979
        82           41.000000        81.968433002       265.607185909      -366.016837146      -349.279394181         0.125539088
        83           41.500000        84.413160239       273.528980897      -368.612053213      -349.728423137         0.126456324
        84           42.000000        81.580563677       264.350349880      -365.332759212      -349.669679233         0.203239910
        85           42.500000        74.381050717       241.021340072      -357.087827537      -349.078605441         0.168641726
        86           43.000000        71.323108891       231.112509402      -352.576673551      -348.586688377         0.127387727
        87           43.500000        78.535302308       254.482608444      -359.019306651      -348.788146976         0.127494723
        88           44.000000        92.503629733       299.745010119      -373.348968272      -349.551088046         0.128333568
        89           44.500000       102.376408155       331.736360907      -384.097076427      -350.120704687         0.140933839
        90           45.000000       100.765823672       326.517488270      -382.782702347      -349.941654450         0.126561757
        91           45.500000        90.551018767       293.417848736      -372.099438135      -349.251354978         0.126852637
        92           46.000000        81.518458486       264.149106737      -362.293301582      -348.790082995         0.157041972
        93           46.500000        79.843135746       258.720458874      -360.263077678      -348.980013752         0.129604586
        94           47.000000        82.855579973       268.481860974      -363.331422044      -349.489589560         0.134013514
        95           47.500000        83.768624581       271.440453689      -364.032013827      -349.657149537         0.128105820
        96           48.000000        80.449193774       260.684304729      -359.856640682      -349.279111949         0.127479834
        97           48.500000        77.958701399       252.614214246      -356.264680826      -348.840536885         0.129565120
        98           49.000000        81.766296957       264.952192465      -359.595841780      -348.931569182         0.127472811
        99           49.500000        90.278760273       292.535633354      -368.403976786      -349.527505137         0.205547112
       100           50.000000        95.280145406       308.741918901      -373.829051771      -349.976103405         0.126774667
       101           50.500000        90.911627658       294.586351162      -369.281604193      -349.734842205         0.125042873
       102           51.000000        81.208280815       263.144019592      -358.389412269      -349.006983150         0.127289438
       103           51.500000        75.791809201       245.592704649      -351.930625415      -348.544789239         0.126727516
       104           52.000000        80.982459910       262.412278689      -356.776184504      -348.836750896         0.123448433
       105           52.500000        92.272060684       298.994643166      -368.608733830      -349.570784787         0.131436242
       106           53.000000        99.523273961       322.491180580      -376.478173150      -349.980184447         0.123835738
       107           53.500000        97.496705307       315.924369705      -374.255141473      -349.691446931         0.122692698
       108           54.000000        89.901135956       291.311994834      -366.155213510      -349.103330245         0.123690849
       109           54.500000        85.077344910       275.681177968      -360.846502761      -348.894218174         0.128777403
       110           55.000000        85.724428541       277.777961522      -361.462256451      -349.242929044         0.124526228
       111           55.500000        87.069545129       282.136622758      -362.953579364      -349.648251080         0.125689417
       112           56.000000        83.803733211       271.554218273      -359.426295456      -349.544367513         0.127912618
       113           56.500000        78.058570781       252.937826940      -352.433025715      -348.990188709         0.128080592
       114           57.000000        76.787288687       248.818416003      -350.088685182      -348.626901033         0.124822228
       115           57.500000        84.687116193       274.416696660      -357.671907468      -348.945133530         0.206501740
       116           58.000000        96.691433745       313.315000395      -370.356117672      -349.686352748         0.125849195
       117           58.500000       102.571849421       332.369660859      -377.074941904      -350.087643343         0.127426201
       118           59.000000        97.269151185       315.187012557      -371.943254904      -349.724894383         0.126474689
       119           59.500000        86.420430400       280.033257718      -360.420266103      -348.982911999         0.128356422
       120           60.000000        80.314826305       260.248905832      -353.534488743      -348.631060986         0.125130481
       121           60.500000        83.396544644       270.234780955      -356.555350956      -348.988423016         0.128855844
       122           61.000000        90.628916350       293.670264905      -364.256617065      -349.599750001         0.132646362
       123           61.500000        93.722434684       303.694376252      -367.578149286      -349.775797529         0.151533837
       124           62.000000        90.378377357       292.858428515      -363.854310760      -349.377882585         0.127406173
       125           62.500000        86.013368516       278.714230898      -358.876373238      -348.941894503         0.131992543
       126           63.000000        86.384320964       279.916250165      -359.002737291      -349.021162736         0.129151453
       127           63.500000        90.070340943       291.860279810      -363.055853179      -349.524466480         0.127615586
       128           64.000000        90.531490916       293.354571480      -363.660901448      -349.814963155         0.128174141
       129           64.500000        83.999139543       272.187405026      -356.626417564      -349.466979387         0.127574817
       130           65.000000        75.754300176       245.471161924      -347.144878591      -348.793475579         0.128118594
       131           65.500000        74.966879258       242.919635118      -345.138974978      -348.525930610         0.208423691
       132           66.000000        84.534779927       273.923072402      -354.545636510      -349.004285954         0.127688025
       133           66.500000        97.493776538       315.914879441      -368.188720713      -349.770818592         0.130135648
       134           67.000000       103.026824413       333.843943372      -374.594404347      -350.055677383         0.130209891
       135           67.500000        97.964104013       317.438909517      -369.541897479      -349.617345831         0.131795785
       136           68.000000        88.608538713       287.123515151      -359.558678412      -348.976728398         0.135493303
       137           68.500000        83.536099507       270.686988872      -354.154701752      -348.811476885         0.126612665
       138           69.000000        85.225976529       276.162797839      -355.872064010      -349.212966911         0.125927345
       139           69.500000        88.092926320       285.452745666      -358.883944447      -349.625193530         0.126260908
       140           70.000000        86.681591938       280.879514974      -357.143931472      -349.521624179         0.125847462
       141           70.500000        82.589872854       267.620874402      -352.137867157      -349.028980981         0.131038807
       142           71.000000        82.068347160       265.930943693      -351.024579256      -348.773872007         0.123729434
       143           71.500000        88.333193078       286.231296322      -357.458321867      -349.136357688         0.123287282
       144           72.000000        96.184609557       311.672707851      -366.001457411      -349.769271254         0.204418379
       145           72.500000        97.002596189       314.323278560      -367.302594485      -349.963161857         0.125779531
       146           73.000000        88.614783535       287.143750621      -358.596867232      -349.454051826         0.126682009
       147           73.500000        78.713009888       255.058444879      -347.491016435      -348.744086647         0.128419264
       148           74.000000        76.660957718       248.409058253      -344.499197815      -348.566888693         0.128951267
       149           74.500000        84.451855040       273.654365961      -352.293078268      -349.094319995         0.127705069
       150           75.000000        94.686304934       306.817662320      -363.044183838      -349.750500477         0.128682089
       151           75.500000        98.246064916       318.352564190      -366.953644237      -349.860405062         0.129018938
       152           76.000000        93.964935259       304.480165281      -362.316732893      -349.391260541         0.126374857
       153           76.500000        88.118120990       285.534385451      -356.006044466      -348.942763806         0.124359958
       154           77.000000        86.879292052       281.520134404      -354.627035886      -349.028498015         0.125802776
       155           77.500000        89.006185663       288.412034201      -356.972070146      -349.488020022         0.125922696
       156           78.000000        88.247775662       285.954513192      -356.352523726      -349.696927552         0.124983048
       157           78.500000        82.309539690       266.712494187      -349.768550790      -349.326442123         0.126696306
       158           79.000000        76.520755826       247.954753727      -342.688154184      -348.756238871         0.203803345
       159           79.500000        78.227772194       253.486100336      -343.461723484      -348.658681165         0.127315378
       160           80.000000        88.119367440       285.538424399      -353.458755803      -349.222805628         0.154612154
       161           80.500000        98.129046454       317.973382312      -364.216952929      -349.895639116         0.128882205
       162           81.000000        99.370882817       321.997378499      -365.720343465      -349.975077413         0.127034677
       163           81.500000        90.951359780       294.715097520      -356.833078120      -349.385623817         0.128278974
       164           82.000000        81.294296301       263.422740685      -346.311182205      -348.753541801         0.127853173
       165           82.500000        79.215331511       256.686147495      -343.545124250      -348.715811697         0.124871793
       166           83.000000        84.890894228       275.077010739      -349.181613737      -349.238423626         0.130882396
       167           83.500000        91.035992600       294.989338277      -355.523244205      -349.689287462         0.129116506
       168           84.000000        91.586456076       296.773037800      -355.846797238      -349.577131068         0.129111727
       169           84.500000        88.201169056       285.803491036      -351.706168432      -349.101620131         0.126873036
       170           85.000000        87.075195994       282.154933592      -350.003772157      -348.888142916         0.129300370
       171           85.500000        90.898543932       294.543955186      -353.816708355      -349.233570341         0.127912768
       172           86.000000        94.582773687       306.482183866      -358.035358806      -349.737924315         0.126074789
       173           86.500000        91.635554694       296.932134971      -355.293850193      -349.762173796         0.124679573
       174           87.000000        82.587155759       267.612070037      -345.350629751      -349.188037744         0.209325347
       175           87.500000        75.156981743       243.535635502      -336.724109481      -348.590082605         0.128331094
       176           88.000000        77.358880026       250.670577395      -338.245446954      -348.620402386         0.126167077
       177           88.500000        88.405957613       286.467079571      -349.449136221      -349.280916583         0.126562539
       178           89.000000        98.711264349       319.859977565      -360.449885908      -349.898777784         0.127683417
       179           89.500000        99.908579215       323.739708099      -362.010063951      -349.862854873         0.126546357
       180           90.000000        92.940986564       301.162203458      -354.659758877      -349.282730724         0.127045508
       181           90.500000        85.761320042       277.897503246      -346.967951152      -348.826287964         0.125904091
       182           91.000000        84.773557466       274.696797455      -345.719537108      -348.957149449         0.125834918
       183           91.500000        88.021467790       285.221194344      -349.080658101      -349.433135745         0.127999235
       184           92.000000        88.753939440       287.594665769      -350.105473208      -349.625127660         0.128901662
       185           92.500000        85.381989904       276.668337251      -345.982628034      -349.277107849         0.129094804
       186           93.000000        82.047176293       265.862342476      -341.783736062      -348.812807122         0.128861605
       187           93.500000        84.918635893       275.166903706      -344.254616408      -348.837316242         0.128139565
       188           94.000000        93.107868695       301.702961545      -352.931515856      -349.408245423         0.126718949
       189           94.500000        98.682651729       319.767262395      -359.300122090      -349.925753959         0.126121319
       190           95.000000        95.076856237       308.083188922      -355.763940659      -349.798558126         0.202710320
       191           95.500000        84.290129685       273.130317680      -344.296924668      -349.118182864         0.126434773
       192           96.000000        76.249634735       247.076223942      -335.004972730      -348.575707338         0.136564426
       193           96.500000        77.905439088       252.441625212      -335.946312320      -348.715347969         0.238869430
       194           97.000000        86.882849053       281.531660366      -345.114177531      -349.350970799         0.245517960
       195           97.500000        94.382431325       305.833002601      -353.054088498      -349.786484261         0.130708942
       196           98.000000        94.776504918       307.109942688      -353.240437242      -349.603062841         0.157976762
       197           98.500000        90.371730873       292.836891516      -348.289312852      -349.099166269         0.126429072
       198           99.000000        87.944057273       284.970356442      -345.567854775      -348.905012574         0.126753426
       199           99.500000        90.040760387       291.764428177      -347.937156292      -349.238099717         0.127725698
       200          100.000000        92.226661894       298.847534768      -350.541449650      -349.657233233         0.126078667
       201          100.500000        89.193878044       289.020224980      -347.289692395      -349.595906040         0.131092641
       202          101.000000        81.789639900       265.027831991      -339.158366675      -349.049266286         0.127676924
       203          101.500000        77.770416491       252.004103466      -334.218562841      -348.612292889         0.128698421
       204          102.000000        82.847632385       268.456107930      -338.875090497      -348.814546286         0.127285791
       205          102.500000        93.437634790       302.771522226      -350.059632997      -349.500320834         0.208425945
       206          103.000000       100.370806411       325.237490359      -357.531080571      -349.966831396         0.126039692
       207          103.500000        97.224865896       315.043512304      -354.371704172      -349.733577197         0.129846702
       208          104.000000        87.473486239       283.445537148      -344.068758973      -349.066401853         0.126815034
       209          104.500000        80.805770876       261.839742710      -336.515536748      -348.670927036         0.130972429
       210          105.000000        82.321005401       266.749647211      -337.612950019      -348.915950089         0.125202480
       211          105.500000        88.294976779       286.107461777      -343.815536713      -349.451814078         0.125783829
       212          106.000000        91.666161464       297.031311908      -347.208170893      -349.640926042         0.124238714
       213          106.500000        89.728267101       290.751837608      -344.943267539      -349.301375138         0.125059465
       214          107.000000        87.380795465       283.145185723      -341.946317488      -348.897908711         0.126291587
       215          107.500000        89.647978416       290.491673410      -344.064175502      -348.971503996         0.128160435
       216          108.000000        95.036616193       307.952796715      -350.150671868      -349.483092211         0.125925833
       217          108.500000        96.975002113       314.233863835      -352.680906388      -349.836175129         0.127620966
       218          109.000000        91.332326322       295.949566052      -346.535819737      -349.566559137         0.125453393
       219          109.500000        81.546034330       264.238462383      -335.764386468      -348.899558240         0.126395246
       220          110.000000        77.054325221       249.683710355      -330.230515606      -348.529367910         0.134698804
       221          110.500000        82.549298313       267.489398306      -335.418015815      -348.860258376         0.204579540
       222          111.000000        93.024813058       301.433831428      -346.404068508      -349.551004745         0.126846595
       223          111.500000        98.971122057       320.702009945      -352.864945085      -349.885444015         0.127451450
       224          112.000000        96.046708026       311.225857325      -349.805706262      -349.562957890         0.125495354
       225          112.500000        88.720802625       287.487290580      -341.964041350      -348.998563014         0.125333833
       226          113.000000        84.977018913       275.356085676      -337.679661781      -348.824698821         0.125639190
       227          113.500000        86.830027550       281.360499712      -339.578840868      -349.175989153         0.125589846